 Gaussian 16, Revision C.02,
 Gaussian 16:  ES64L-G16RevC.02  7-Dec-2021

 -------------------------------------------
 # opt freq hf/6-311g(d,p) geom=connectivity
 -------------------------------------------

 -------------------
 Title Card Required
 -------------------
 Symbolic Z-matrix:
 Charge =  0 Multiplicity = 1

 SCF Done:  E(RHF) =  -115.073702160     A.U. after   11 cycles
 SCF Done:  E(RHF) =  -115.075558599     A.U. after   10 cycles
 SCF Done:  E(RHF) =  -115.075801798     A.U. after    9 cycles
 SCF Done:  E(RHF) =  -115.075811929     A.U. after    8 cycles
 Optimization completed.
    -- Stationary point found.
 Normal termination of Gaussian 16 at Mon Jul 14 10:12:33 2025.

 --------------------------------------------------------------------
 #N Geom=AllCheck Guess=TCheck SCRF=Check GenChk RHF/6-311G(d,p) Freq
 --------------------------------------------------------------------

 Structure from the checkpoint file:  "methanol_gaussian.chk"
 -------------------
 Title Card Required
 -------------------
 Charge =  0 Multiplicity = 1

                         Standard orientation:
 ---------------------------------------------------------------------
 Center     Atomic      Atomic             Coordinates (Angstroms)
 Number     Number       Type             X           Y           Z
 ---------------------------------------------------------------------
      1          6           0        0.654887   -0.019477    0.000003
      2          1           0        1.079336    0.975743   -0.000986
      3          1           0        1.012272   -0.542460    0.885141
      4          1           0        1.012125   -0.544134   -0.884203
      5          8           0       -0.737222    0.119878    0.000002
      6          1           0       -1.135278   -0.731309    0.000015
 ---------------------------------------------------------------------

 SCF Done:  E(RHF) =  -115.075811929     A.U. after    1 cycles

 The electronic state is 1-A.
 Alpha  occ. eigenvalues --  -20.54114 -11.26564  -1.36213  -0.92671  -0.69449
 Alpha  occ. eigenvalues --   -0.62094  -0.59571  -0.49787  -0.44487
 Alpha virt. eigenvalues --    0.15549   0.18997   0.22654   0.23325   0.34708
 Alpha virt. eigenvalues --    0.45639   0.48042   0.59484   0.69639   0.73158
 Alpha virt. eigenvalues --    0.78741   0.80326   0.89776   1.02294   1.05139

 Mulliken charges:
               1
     1  C    0.010828
     2  H    0.087259
     3  H    0.064811
     4  H    0.064797
     5  O   -0.470904
     6  H    0.243210
 Sum of Mulliken charges =  -0.00000

 Dipole moment (field-independent basis, Debye):
    X=              0.8947    Y=             -1.5978    Z=             -0.0001  Tot=              1.8312
 Quadrupole moment (field-independent basis, Debye-Ang):
   XX=            -12.6267   YY=            -12.0474   ZZ=            -13.5197
   XY=              2.3038   XZ=             -0.0002   YZ=             -0.0001

  Exact polarizability:      16.742       0.885      15.855       0.000       0.000      14.411
 Approx polarizability:      13.331       0.596      13.568       0.000      -0.000      11.914

                      1                      2                      3
                      A                      A                      A
 Frequencies --    344.7647              1160.2770              1180.0099
 Red. masses --      1.0715                 1.0827                 6.4100
 Frc consts  --      0.0750                 0.8587                 5.2587
 IR Inten    --    137.5322                51.2572                90.9672
 Raman Activ --      2.5119                 1.4544                 8.3146

                      4                      5                      6
                      A                      A                      A
 Frequencies --   1277.3915              1489.3183              1615.3491
 Red. masses --      1.2722                 1.3029                 1.1398
 Frc consts  --      1.2231                 1.7026                 1.7523
 IR Inten    --      2.9095                38.3313                 9.0701
 Raman Activ --      4.0142                 2.4962                 4.5307

                      7                      8                      9
                      A                      A                      A
 Frequencies --   1618.9323              1630.3298              3140.3934
 Red. masses --      1.0463                 1.0592                 1.0374
 Frc consts  --      1.6157                 1.6588                 6.0280
 IR Inten    --      2.1743                 4.3202                65.9614
 Raman Activ --     13.4423                11.8103               137.2371

                     10                     11                     12
                      A                      A                      A
 Frequencies --   3184.8421              3256.8325              4185.0339
 Red. masses --      1.1060                 1.0982                 1.0670
 Frc consts  --      6.6095                 6.8628                11.0111
 IR Inten    --     98.1681                49.8939                47.2733
 Raman Activ --     68.7678                75.3100                60.0719

 - Thermochemistry -
 -------------------
 Temperature   298.150 Kelvin.  Pressure   1.00000 Atm.
 Atom     1 has atomic number  6 and mass  12.00000

 Molecular mass:    32.02621 amu.
 Principal axes and moments of inertia in atomic units:
                           1         2         3
     Eigenvalues --    13.75104  70.95611  73.44016
           X            0.99897   0.04538  -0.00000
           Y           -0.04538   0.99897  -0.00000
           Z            0.00000   0.00000   1.00000
 This molecule is an asymmetric top.
 Rotational symmetry number  1.
 Rotational temperatures (Kelvin)      6.29872     1.22067     1.17938
 Rotational constants (GHZ):         131.24397    25.43461    24.57431
 Zero-point vibrational energy     144051.2 (Joules/Mol)
                                   34.42906 (Kcal/Mol)
 Warning -- explicit consideration of   1 degrees of freedom as
           vibrations may cause significant error
 Vibrational temperatures:    496.04  1669.38  1697.77  1837.88  2142.80
          (Kelvin)           2324.13  2329.28  2345.68  4518.33  4582.28
                             4685.86  6021.33

 Zero-point correction=                           0.054866 (Hartree/Particle)
 Thermal correction to Energy=                    0.058130
 Thermal correction to Enthalpy=                  0.059074
 Thermal correction to Gibbs Free Energy=         0.032190
 Sum of electronic and zero-point Energies=           -115.020946
 Sum of electronic and thermal Energies=              -115.017682
 Sum of electronic and thermal Enthalpies=            -115.016738
 Sum of electronic and thermal Free Energies=         -115.043622

                     E (Thermal)             CV                S
                      KCal/Mol        Cal/Mol-Kelvin    Cal/Mol-Kelvin
 Total                   36.477              8.382             56.582
 Electronic               0.000              0.000              0.000
 Translational            0.889              2.981             36.324
 Rotational               0.889              2.981             18.911
 Vibrational             34.700              2.420              1.347
 Vibration     1          0.723              1.586              1.190

 Optimization completed.
    -- Stationary point found.
 Normal termination of Gaussian 16 at Mon Jul 14 10:12:36 2025.
