 Gaussian 16, Revision C.02,
 Gaussian 16:  ES64L-G16RevC.02  7-Dec-2021

 -------------------------------------------
 # opt freq hf/6-311g(d,p) geom=connectivity
 -------------------------------------------

 -------------------
 Title Card Required
 -------------------
 Symbolic Z-matrix:
 Charge =  0 Multiplicity = 1

 SCF Done:  E(RHF) =  -76.0456769846     A.U. after   11 cycles
 SCF Done:  E(RHF) =  -76.0469748639     A.U. after    9 cycles
 SCF Done:  E(RHF) =  -76.0470119317     A.U. after    8 cycles
 Optimization completed.
    -- Stationary point found.
 Normal termination of Gaussian 16 at Mon Jul 14 10:19:23 2025.

 --------------------------------------------------------------------
 #N Geom=AllCheck Guess=TCheck SCRF=Check GenChk RHF/6-311G(d,p) Freq
 --------------------------------------------------------------------

 Structure from the checkpoint file:  "wasser_gaussian.chk"
 -------------------
 Title Card Required
 -------------------
 Charge =  0 Multiplicity = 1

                         Standard orientation:
 ---------------------------------------------------------------------
 Center     Atomic      Atomic             Coordinates (Angstroms)
 Number     Number       Type             X           Y           Z
 ---------------------------------------------------------------------
      1          8           0        0.000000   -0.000000    0.114046
      2          1           0       -0.000000    0.748687   -0.456184
      3          1           0       -0.000000   -0.748687   -0.456184
 ---------------------------------------------------------------------

 SCF Done:  E(RHF) =  -76.0470119317     A.U. after    1 cycles

 The electronic state is 1-A1.
 Alpha  occ. eigenvalues --  -20.54139  -1.34911  -0.71705  -0.57294  -0.50067
 Alpha virt. eigenvalues --    0.15257   0.21857   0.57706   0.62077   0.99747
 Alpha virt. eigenvalues --    1.00311   1.11141   1.31053   1.49744   1.51602
 Alpha virt. eigenvalues --    1.72655   1.93065   2.27698   2.39803   2.60990

 Mulliken charges:
               1
     1  O   -0.498127
     2  H    0.249064
     3  H    0.249064
 Sum of Mulliken charges =  -0.00000

 Dipole moment (field-independent basis, Debye):
    X=             -0.0000    Y=             -0.0000    Z=             -2.1386  Tot=              2.1386
 Quadrupole moment (field-independent basis, Debye-Ang):
   XX=             -7.1365   YY=             -4.1321   ZZ=             -6.0164
   XY=              0.0000   XZ=              0.0000   YZ=             -0.0000

  Exact polarizability:       3.774       0.000       7.080       0.000      -0.000       5.284
 Approx polarizability:       3.033       0.000       5.809       0.000      -0.000       4.392

                      1                      2                      3
                     A1                     A1                     B2
 Frequencies --   1751.9058              4140.3550              4235.1983
 Red. masses --      1.0822                 1.0456                 1.0828
 Frc consts  --      1.9569                10.5610                11.4428
 IR Inten    --     78.8373                17.7467                57.0118
 Raman Activ --      6.4006                65.4900                32.4807

 - Thermochemistry -
 -------------------
 Temperature   298.150 Kelvin.  Pressure   1.00000 Atm.
 Atom     1 has atomic number  8 and mass  15.99491

 Molecular mass:    18.01056 amu.
 Principal axes and moments of inertia in atomic units:
                           1         2         3
     Eigenvalues --     2.07858   4.03472   6.11331
           X            0.00000   0.00000   1.00000
           Y            1.00000   0.00000   0.00000
           Z           -0.00000   1.00000  -0.00000
 This molecule is an asymmetric top.
 Rotational symmetry number  2.
 Rotational temperatures (Kelvin)     41.66972    21.46713    14.16810
 Rotational constants (GHZ):         868.25594   447.30236   295.21529
 Zero-point vibrational energy      60575.7 (Joules/Mol)
                                   14.47793 (Kcal/Mol)
 Vibrational temperatures:   2520.60  5957.05  6093.51
          (Kelvin)

 Zero-point correction=                           0.023072 (Hartree/Particle)
 Thermal correction to Energy=                    0.025906
 Thermal correction to Enthalpy=                  0.026850
 Thermal correction to Gibbs Free Energy=         0.005493
 Sum of electronic and zero-point Energies=            -76.023940
 Sum of electronic and thermal Energies=               -76.021106
 Sum of electronic and thermal Enthalpies=             -76.020161
 Sum of electronic and thermal Free Energies=          -76.041518

                     E (Thermal)             CV                S
                      KCal/Mol        Cal/Mol-Kelvin    Cal/Mol-Kelvin
 Total                   16.256              5.992             44.950
 Electronic               0.000              0.000              0.000
 Translational            0.889              2.981             34.608
 Rotational               0.889              2.981             10.337
 Vibrational             14.479              0.030              0.004

 Optimization completed.
    -- Stationary point found.
 Normal termination of Gaussian 16 at Mon Jul 14 10:19:25 2025.
